
#(C) 2021 by FIZ Karlsruhe - Leibniz Institute for Information Infrastructure.  All rights reserved.
data_60570-ICSD
_database_code_ICSD 60570
_audit_creation_date 1986-12-03
_audit_update_record 2000-07-15
_chemical_name_common 'Cadmium sulfate(VI)'
_chemical_formula_structural 'Cd (S O4)'
_chemical_formula_sum 'Cd1 O4 S1'
_exptl_crystal_density_diffrn 4.77
_citation_title
'Donnees cristallographiques sur deux formes du sulfate anhydre de cadmium'
loop_
_citation_id
_citation_journal_full
_citation_year
_citation_journal_volume
_citation_page_first
_citation_page_last
_citation_journal_id_ASTM
primary 'Comptes Rendus Hebdomadaires des Seances de l'Academie des Sciences'
1961 253 997 999 COREAF
loop_
_citation_author_citation_id
_citation_author_name
primary 'Coing-Boyat, J.'
_cell_length_a 4.713(3)
_cell_length_b 4.698(3)
_cell_length_c 6.553(4)
_cell_angle_alpha 90.
_cell_angle_beta 90.
_cell_angle_gamma 90.
_cell_volume 145.09
_cell_formula_units_Z 2
_space_group_name_H-M_alt 'P 21 2 21'
_space_group_IT_number 18
loop_
_space_group_symop_id
_space_group_symop_operation_xyz
1 '-x+1/2, -y, z+1/2'
2 'x+1/2, -y, -z+1/2'
3 '-x, y, -z'
4 'x, y, z'
loop_
_atom_type_symbol
_atom_type_oxidation_number
Cd2+ 2
S6+ 6
O2- -2
loop_
_atom_site_label
_atom_site_type_symbol
_atom_site_symmetry_multiplicity
_atom_site_Wyckoff_symbol
_atom_site_fract_x
_atom_site_fract_y
_atom_site_fract_z
_atom_site_B_iso_or_equiv
_atom_site_occupancy
Cd1 Cd2+ 2 a 0 0.125 0 . 1.
S1 S6+ 2 b 0 0.375 0.5 . 1.
#End of TTdata_60570-ICSD