
#(C) 2021 by FIZ Karlsruhe - Leibniz Institute for Information Infrastructure.  All rights reserved.
data_9868-ICSD
_database_code_ICSD 9868
_audit_creation_date 2003-10-01
_chemical_name_common 'Lanthanum magnesium tungsten oxide (0.7/0.5/0.5/3)'
_chemical_formula_structural 'La0.667 (Mg0.5 W0.5) O3'
_chemical_formula_sum 'La0.667 Mg0.5 O3 W0.5'
_exptl_crystal_density_diffrn 6.72
_citation_title 'Synthesis and superstructure of La0.667 (Mg0.5 W0.5)3'
loop_
_citation_id
_citation_journal_full
_citation_year
_citation_journal_volume
_citation_page_first
_citation_page_last
_citation_journal_id_ASTM
primary 'Chemistry Letters' 1979 1979 1215 1218 CMLTAG
loop_
_citation_author_citation_id
_citation_author_name
primary 'Torii, Y.'
_cell_length_a 7.8157(5)
_cell_length_b 7.8344(6)
_cell_length_c 7.9067(6)
_cell_angle_alpha 90.
_cell_angle_beta 90.
_cell_angle_gamma 90.
_cell_volume 484.14
_cell_formula_units_Z 8
_space_group_name_H-M_alt 'P 2 2 2'
_space_group_IT_number 16
loop_
_space_group_symop_id
_space_group_symop_operation_xyz
1 '-x, y, -z'
2 'x, -y, -z'
3 '-x, -y, z'
4 'x, y, z'
loop_
_atom_type_symbol
_atom_type_oxidation_number
La3+ 3
Mg2+ 2
W6+ 6
O2- -2
loop_
_atom_site_label
_atom_site_type_symbol
_atom_site_symmetry_multiplicity
_atom_site_Wyckoff_symbol
_atom_site_fract_x
_atom_site_fract_y
_atom_site_fract_z
_atom_site_B_iso_or_equiv
_atom_site_occupancy
La1 La3+ 1 a 0 0 0 . 1.
La2 La3+ 1 b 0.5 0 0 . 1.
La3 La3+ 1 c 0 0.5 0 . 1.
La4 La3+ 1 e 0.5 0.5 0 . 1.
La5 La3+ 1 d 0 0 0.5 . 0.333
La6 La3+ 1 f 0.5 0 0.5 . 0.333
La7 La3+ 1 g 0 0.5 0.5 . 0.333
La8 La3+ 1 h 0.5 0.5 0.5 . 0.333
Mg1 Mg2+ 4 u 0.25 0.25 0.25 . 1.
W1 W6+ 4 u 0.75 0.75 0.75 . 1.
O1 O2- 4 u 0.25 0.25 0 . 1.
O2 O2- 4 u 0.25 0.25 0.5 . 1.
O3 O2- 4 u 0.25 0 0.25 . 1.
O4 O2- 4 u 0.25 0.5 0.25 . 1.
O5 O2- 4 u 0 0.25 0.25 . 1.
O6 O2- 4 u 0.5 0.25 0.25 . 1.
#End of TTdata_9868-ICSD