
#(C) 2021 by FIZ Karlsruhe - Leibniz Institute for Information Infrastructure.  All rights reserved.
data_5301-ICSD
_database_code_ICSD 5301
_audit_creation_date 2015-08-01
_chemical_name_common 'Tricalcium uranium hexaoxide'
_chemical_formula_structural 'Ca3.04 U.96 O6'
_chemical_formula_sum 'Ca3.04 O6 U0.96'
_chemical_name_mineral Vapnikite
_exptl_crystal_density_diffrn 5.22
_citation_title

;
Vapnikite Ca3 U O6 - a new double-perovskite mineral from pyrometamorphic
larnite rocks of the Jabel Harmun, Palestinian Autonomy, Isreal
;
loop_
_citation_id
_citation_journal_full
_citation_year
_citation_journal_volume
_citation_page_first
_citation_page_last
_citation_journal_id_ASTM
primary 'Mineralogical Magazine' 2014 78 571 581 MNLMBB
loop_
_citation_author_citation_id
_citation_author_name
primary 'Galuskin, E.V.'
primary 'Galuskina, I.O.'
primary 'Kusz, J.'
primary 'Armbruster, T.'
primary 'Marzec, K.M.'
primary 'Dzierzanowski, P.'
primary 'Murashko, M.'
_cell_length_a 5.739(1)
_cell_length_b 5.951(1)
_cell_length_c 8.312(1)
_cell_angle_alpha 90.
_cell_angle_beta 90.4(1)
_cell_angle_gamma 90.
_cell_volume 283.87
_cell_formula_units_Z 2
_space_group_name_H-M_alt 'P 1 21/n 1'
_space_group_IT_number 14
loop_
_space_group_symop_id
_space_group_symop_operation_xyz
1 '-x+1/2, y+1/2, -z+1/2'
2 '-x, -y, -z'
3 'x+1/2, -y+1/2, z+1/2'
4 'x, y, z'
loop_
_atom_type_symbol
_atom_type_oxidation_number
Ca2+ 2
U6+ 6
Ca2+ 2
U6+ 6
Ca2+ 2
O2- -2
loop_
_atom_site_label
_atom_site_type_symbol
_atom_site_symmetry_multiplicity
_atom_site_Wyckoff_symbol
_atom_site_fract_x
_atom_site_fract_y
_atom_site_fract_z
_atom_site_U_iso_or_equiv
_atom_site_occupancy
Ca1 Ca2+ 4 e 0.5138(3) 0.5507(6) 0.2409(6) .0140(7) .978(3)
U1 U6+ 4 e 0.495(2) 0.569(3) 0.294(3) .0140(7) .022(3)
Ca2 Ca2+ 2 d 0.5 0 0 .0062(12) .920(8)
U2 U6+ 2 d 0.5 0 0 .0062(12) .080(8)
U3 U6+ 2 c 0 0.5 0 .0039(3) .832(16)
Ca3 Ca2+ 2 c 0 0.5 0 .0039(3) .168(16)
O1 O2- 4 e 0.1776(8) 0.2117(8) 0.9211(5) .0258(13) 1.
O2 O2- 4 e 0.2958(8) 0.6800(8) 0.9428(5) .0279(14) 1.
O3 O2- 4 e 0.3729(7) 0.9288(9) 0.2658(5) .0129(15) .93(2)
O4 O2- 4 e 0.53(3) 0.005(7) 0.273(17) .0129(15) .07(2)
loop_
_atom_site_aniso_label
_atom_site_aniso_type_symbol
_atom_site_aniso_U_11
_atom_site_aniso_U_22
_atom_site_aniso_U_33
_atom_site_aniso_U_12
_atom_site_aniso_U_13
_atom_site_aniso_U_23
Ca1 Ca2+ .0144 .0085 .0192 .0042 .0023 -.002
U1 U6+ .0144 .0085 .0192 .0042 .0023 -.002
Ca2 Ca2+ .0076 .0059 .0052 -.0012 -.0005 .0007
U2 U6+ .0076 .0059 .0052 -.0012 -.0005 .0007
U3 U6+ .0048 .003 .0039 -.0027 .0009 -.00009
Ca3 Ca2+ .0048 .003 .0039 -.0027 .0009 -.00009
O1 O2- .021 .026 .031 .006 -.0072 -.013
O2 O2- .025 .025 .034 -.011 .014 -.014
O3 O2- .018 .006 .014 .0036 .0016 .0014
O4 O2- .018 .006 .014 .0036 .0016 .0014
#End of TTdata_5301-ICSD