
#(C) 2021 by FIZ Karlsruhe - Leibniz Institute for Information Infrastructure.  All rights reserved.
data_163980-ICSD
_database_code_ICSD 163980
_audit_creation_date 2009-08-01
_audit_update_record 2013-02-01
_chemical_name_common 'Manganese telluro(IV)molybdate'
_chemical_formula_structural 'Mn (Te Mo O6)'
_chemical_formula_sum 'Mn1 Mo1 O6 Te1'
_chemical_name_structure_type CoTeMoO6
_exptl_crystal_density_diffrn 5.16
_diffrn_ambient_temperature 3.3
_citation_title

;
Magnetic and neutron diffraction study on quaternary oxides M Te Mo O6 (M= Mn
and Zn)
;
loop_
_citation_id
_citation_journal_full
_citation_year
_citation_journal_volume
_citation_page_first
_citation_page_last
_citation_journal_id_ASTM
primary 'Journal of Physics: Condensed Matter' 2009 21 1 6 JCOMEL
loop_
_citation_author_citation_id
_citation_author_name
primary 'Doi, Y.'
primary 'Suzuki, R.'
primary 'Hinatsu, Y.'
primary 'Ohoyama, K.'
_cell_length_a 5.2846(2)
_cell_length_b 5.1195(2)
_cell_length_c 8.9119(4)
_cell_angle_alpha 90.
_cell_angle_beta 90.
_cell_angle_gamma 90.
_cell_volume 241.11
_cell_formula_units_Z 2
_space_group_name_H-M_alt 'P 21 21 2'
_space_group_IT_number 18
loop_
_space_group_symop_id
_space_group_symop_operation_xyz
1 '-x+1/2, y+1/2, -z'
2 'x+1/2, -y+1/2, -z'
3 '-x, -y, z'
4 'x, y, z'
loop_
_atom_type_symbol
_atom_type_oxidation_number
Mn2+ 2
Te4+ 4
Mo6+ 6
O2- -2
loop_
_atom_site_label
_atom_site_type_symbol
_atom_site_symmetry_multiplicity
_atom_site_Wyckoff_symbol
_atom_site_fract_x
_atom_site_fract_y
_atom_site_fract_z
_atom_site_B_iso_or_equiv
_atom_site_occupancy
Mn1 Mn2+ 2 a 0 0 0.5227(3) 0.10(9) 1.
Te1 Te4+ 2 b 0 0.5 0.2483(3) 0.21(6) 1.
Mo1 Mo6+ 2 b 0 0.5 0.8120(3) 0.20(6) 1.
O1 O2- 4 c 0.2970(4) 0.8400(4) 0.0710(2) 0.45(5) 1.
O2 O2- 4 c 0.1879(4) 0.7492(4) 0.7086(2) 0.37(5) 1.
O3 O2- 4 c 0.1775(4) 0.7128(3) 0.3863(2) 0.40(5) 1.
#End of TTdata_163980-ICSD