
#(C) 2021 by FIZ Karlsruhe - Leibniz Institute for Information Infrastructure.  All rights reserved.
data_240086-ICSD
_database_code_ICSD 240086
_audit_creation_date 2003-10-01
_chemical_name_common 'Yttrium aluminium gallide (1.46/4.01/1.72)'
_chemical_formula_structural 'Y1.46 Al4.01 Ga1.72'
_chemical_formula_sum 'Al4.01 Ga1.72 Y1.46'
_exptl_crystal_density_diffrn 4.62
_citation_title

;
Isothermal section (400C) of the phase diagram of Y-Al-Ga ternary system in
the region up to 33.3 at.% Y
;
loop_
_citation_id
_citation_journal_full
_citation_year
_citation_journal_volume
_citation_page_first
_citation_page_last
_citation_journal_id_ASTM
primary 'Journal of Alloys and Compounds' 2003 348 138 145 JALCEU
loop_
_citation_author_citation_id
_citation_author_name
primary 'Speka, M.V.'
primary 'Markiv, V.Ya.'
primary 'Zakharenko, M.I.'
primary 'Belyavina, N.M.'
_cell_length_a 16.93(2)
_cell_length_b 12.51(1)
_cell_length_c 9.726(2)
_cell_angle_alpha 90
_cell_angle_beta 90
_cell_angle_gamma 90
_cell_volume 2059.91
_cell_formula_units_Z 16
_space_group_name_H-M_alt 'P 2 2 2'
_space_group_IT_number 16
loop_
_space_group_symop_id
_space_group_symop_operation_xyz
1 '-x, y, -z'
2 'x, -y, -z'
3 '-x, -y, z'
4 'x, y, z'
loop_
_atom_type_symbol
_atom_type_oxidation_number
Y0+ 0
Al0+ 0
Ga0+ 0
Y0+ 0
Al0+ 0
Ga0+ 0
Y0+ 0
Al0+ 0
Ga0+ 0
Y0+ 0
Al0+ 0
Ga0+ 0
Y0+ 0
Al0+ 0
Ga0+ 0
Al0+ 0
Ga0+ 0
Al0+ 0
Ga0+ 0
Al0+ 0
Ga0+ 0
Al0+ 0
Ga0+ 0
Al0+ 0
Ga0+ 0
Al0+ 0
Ga0+ 0
Al0+ 0
Ga0+ 0
Al0+ 0
Ga0+ 0
Al0+ 0
Ga0+ 0
Al0+ 0
Ga0+ 0
Al0+ 0
Ga0+ 0
Al0+ 0
Ga0+ 0
Al0+ 0
Ga0+ 0
Al0+ 0
Ga0+ 0
Al0+ 0
Ga0+ 0
Al0+ 0
Ga0+ 0
Al0+ 0
Ga0+ 0
Al0+ 0
Ga0+ 0
Al0+ 0
Ga0+ 0
Al0+ 0
Ga0+ 0
Al0+ 0
Ga0+ 0
Al0+ 0
Ga0+ 0
Al0+ 0
Ga0+ 0
Al0+ 0
Ga0+ 0
loop_
_atom_site_label
_atom_site_type_symbol
_atom_site_symmetry_multiplicity
_atom_site_Wyckoff_symbol
_atom_site_fract_x
_atom_site_fract_y
_atom_site_fract_z
_atom_site_B_iso_or_equiv
_atom_site_occupancy
Y1 Y0+ 1 a 0 0 0 1.66(4) 1.
Y2 Y0+ 1 b 0.5 0 0 1.66(4) 1.
Y3 Y0+ 2 i 0.238(2) 0 0 1.66(4) 1.
Y4 Y0+ 2 m 0 0.313(2) 0 1.66(4) 1.
Y5 Y0+ 4 u 0.246(2) 0.332(2) 0 1.66(4) 1.
Y6 Y0+ 2 o 0.5 0.332(2) 0 1.66(4) 1.
Y7 Y0+ 2 l 0.158(2) 0.5 0.5 1.66(4) 1.
Y8 Y0+ 2 l 0.362(2) 0.5 0.5 1.66(4) 1.
Y9 Y0+ 1 f 0.5 0 0.5 1.66(4) 0.86
Al1 Al0+ 1 f 0.5 0 0.5 1.66(4) 0.1
Ga1 Ga0+ 1 f 0.5 0 0.5 1.66(4) 0.04
Y10 Y0+ 4 u 0.153(1) 0.163(2) 0.5 1.66(4) 0.7
Al2 Al0+ 4 u 0.153(1) 0.163(2) 0.5 1.66(4) 0.21
Ga2 Ga0+ 4 u 0.153(1) 0.163(2) 0.5 1.66(4) 0.09
Y11 Y0+ 4 u 0.368(1) 0.177(2) 0.5 1.66(4) 0.7
Al3 Al0+ 4 u 0.368(1) 0.177(2) 0.5 1.66(4) 0.21
Ga3 Ga0+ 4 u 0.368(1) 0.177(2) 0.5 1.66(4) 0.09
Y12 Y0+ 1 e 0.5 0.5 0 1.66(4) 0.42
Al4 Al0+ 1 e 0.5 0.5 0 1.66(4) 0.41
Ga4 Ga0+ 1 e 0.5 0.5 0 1.66(4) 0.17
Y13 Y0+ 1 d 0 0 0.5 1.66(4) 0.42
Al5 Al0+ 1 d 0 0 0.5 1.66(4) 0.41
Ga5 Ga0+ 1 d 0 0 0.5 1.66(4) 0.17
Al6 Al0+ 4 u 0.25 0. 0.353(4) 1.66(4) 0.7
Ga6 Ga0+ 4 u 0.25 0. 0.353(4) 1.66(4) 0.3
Al7 Al0+ 4 u 0 0.365(4) 0.399(3) 1.66(4) 0.7
Ga7 Ga0+ 4 u 0 0.365(4) 0.399(3) 1.66(4) 0.3
Al8 Al0+ 4 u 0.25 0.343(9) 0.377(9) 1.66(4) 0.7
Ga8 Ga0+ 4 u 0.25 0.343(9) 0.377(9) 1.66(4) 0.3
Al9 Al0+ 4 u 0.75 0.660(2) 0.610(9) 1.66(4) 0.7
Ga9 Ga0+ 4 u 0.75 0.660(2) 0.610(9) 1.66(4) 0.3
Al10 Al0+ 4 u 0.137(3) 0.163(7) 0.053(6) 1.66(4) 0.7
Ga10 Ga0+ 4 u 0.137(3) 0.163(7) 0.053(6) 1.66(4) 0.3
Al11 Al0+ 4 u 0.350(2) 0.165(7) 0.125(7) 1.66(4) 0.7
Ga11 Ga0+ 4 u 0.350(2) 0.165(7) 0.125(7) 1.66(4) 0.3
Al12 Al0+ 4 u 0.620(2) 0.842(7) 0.872(7) 1.66(4) 0.7
Ga12 Ga0+ 4 u 0.620(2) 0.842(7) 0.872(7) 1.66(4) 0.3
Al13 Al0+ 2 k 0.097(3) 0.5 0 1.66(4) 0.7
Ga13 Ga0+ 2 k 0.097(3) 0.5 0 1.66(4) 0.3
Al14 Al0+ 4 u 0.302(2) 0.5 0.175(4) 1.66(4) 0.7
Ga14 Ga0+ 4 u 0.302(2) 0.5 0.175(4) 1.66(4) 0.3
Al15 Al0+ 4 u 0.093(2) 0. 0.235(4) 1.66(4) 0.7
Ga15 Ga0+ 4 u 0.093(2) 0. 0.235(4) 1.66(4) 0.3
Al16 Al0+ 4 u 0.371(3) 0. 0.283(5) 1.66(4) 0.7
Ga16 Ga0+ 4 u 0.371(3) 0. 0.283(5) 1.66(4) 0.3
Al17 Al0+ 4 u 0. 0.158(4) 0.209(4) 1.66(4) 0.7
Ga17 Ga0+ 4 u 0. 0.158(4) 0.209(4) 1.66(4) 0.3
Al18 Al0+ 2 s 0 0.5 0.244(8) 1.66(4) 0.7
Ga18 Ga0+ 2 s 0 0.5 0.244(8) 1.66(4) 0.3
Al19 Al0+ 4 u 0.875(3) 0.833(8) 0.900(6) 1.66(4) 0.7
Ga19 Ga0+ 4 u 0.875(3) 0.833(8) 0.900(6) 1.66(4) 0.3
Al20 Al0+ 4 u 0.730(3) 0.831(7) 0.767(7) 1.66(4) 0.7
Ga20 Ga0+ 4 u 0.730(3) 0.831(7) 0.767(7) 1.66(4) 0.3
Al21 Al0+ 4 u 0.457(2) 0.176(5) 0.247(5) 1.66(4) 0.7
Ga21 Ga0+ 4 u 0.457(2) 0.176(5) 0.247(5) 1.66(4) 0.3
Al22 Al0+ 4 u 0.160(3) 0.494(9) 0.139(4) 1.66(4) 0.7
Ga22 Ga0+ 4 u 0.160(3) 0.494(9) 0.139(4) 1.66(4) 0.3
Al23 Al0+ 2 t 0.5 0.5 0.412(5) 1.66(4) 0.7
Ga23 Ga0+ 2 t 0.5 0.5 0.412(5) 1.66(4) 0.3
Al24 Al0+ 4 u 0.098(3) 0.325(9) 0.228(9) 1.66(4) 0.7
Ga24 Ga0+ 4 u 0.098(3) 0.325(9) 0.228(9) 1.66(4) 0.3
Al25 Al0+ 4 u 0.893(3) 0.672(9) 0.763(9) 1.66(4) 0.7
Ga25 Ga0+ 4 u 0.893(3) 0.672(9) 0.763(9) 1.66(4) 0.3
Al26 Al0+ 4 u 0.396(3) 0.342(8) 0.277(9) 1.66(4) 0.7
Ga26 Ga0+ 4 u 0.396(3) 0.342(8) 0.277(9) 1.66(4) 0.3
Al27 Al0+ 4 u 0.605(3) 0.666(8) 0.725(9) 1.66(4) 0.7
Ga27 Ga0+ 4 u 0.605(3) 0.666(8) 0.725(9) 1.66(4) 0.3
Al28 Al0+ 4 u 0.232(3) 0.171(7) 0.224(7) 1.66(4) 0.7
Ga28 Ga0+ 4 u 0.232(3) 0.171(7) 0.224(7) 1.66(4) 0.3
Al29 Al0+ 2 n 0 0.208(3) 0.5 1.66(4) 0.7
Ga29 Ga0+ 2 n 0 0.208(3) 0.5 1.66(4) 0.3
#End of TTdata_240086-ICSD