
#(C) 2021 by FIZ Karlsruhe - Leibniz Institute for Information Infrastructure.  All rights reserved.
data_244749-ICSD
_database_code_ICSD 244749
_audit_creation_date 2018-08-01
_chemical_name_common 'Hexapotassium ditin heptasulfide'
_chemical_formula_structural 'K6 Sn2 S7'
_chemical_formula_sum 'K6 S7 Sn2'
_exptl_crystal_density_diffrn 2.44
_citation_title

;
In situ studies of a platform for metastable inorganic crystal growth and
materials discovery
;
loop_
_citation_id
_citation_journal_full
_citation_year
_citation_journal_volume
_citation_page_first
_citation_page_last
_citation_journal_id_ASTM
primary

;
Proceedings of the National Academy of Sciences of the United States of
America
; 2014 111 10922 10927 PNASA6
loop_
_citation_author_citation_id
_citation_author_name
primary 'Shoemaker, Daniel P.'
primary 'Hu, Yung-Jin'
primary 'Chung, Duck Young'
primary 'Halder, Gregory J.'
primary 'Chupas, Peter J.'
primary 'Soderholm, L.'
primary 'Mitchell, J. F.'
primary 'Kanatzidis, Mercouri G.'
_cell_length_a 9.7892(6)
_cell_length_b 13.1729(7)
_cell_length_c 14.6936(8)
_cell_angle_alpha 90.
_cell_angle_beta 90.
_cell_angle_gamma 90.
_cell_volume 1894.77
_cell_formula_units_Z 4
_space_group_name_H-M_alt 'P 21 21 2'
_space_group_IT_number 18
loop_
_space_group_symop_id
_space_group_symop_operation_xyz
1 '-x+1/2, y+1/2, -z'
2 'x+1/2, -y+1/2, -z'
3 '-x, -y, z'
4 'x, y, z'
loop_
_atom_type_symbol
_atom_type_oxidation_number
K1+ 1
Sn4+ 4
S2- -2
loop_
_atom_site_label
_atom_site_type_symbol
_atom_site_symmetry_multiplicity
_atom_site_Wyckoff_symbol
_atom_site_fract_x
_atom_site_fract_y
_atom_site_fract_z
_atom_site_U_iso_or_equiv
_atom_site_occupancy
K1 K1+ 4 c 0.969(5) 0.828(4) 0.185(4) 0.087(9) 1.
K2 K1+ 4 c 0.714(5) 0.856(4) 0.940(4) 0.087(9) 1.
K3 K1+ 4 c 0.748(5) 0.893(5) 0.633(4) 0.087(9) 1.
K4 K1+ 4 c 0.571(5) 0.829(4) 0.394(4) 0.087(9) 1.
K5 K1+ 4 c 0.644(5) 0.663(4) 0.130(5) 0.087(9) 1.
K6 K1+ 4 c 0.646(5) 0.567(4) 0.591(4) 0.087(9) 1.
Sn1 Sn4+ 4 c 0.9243(13) 0.6016(14) 0.8580(13) 0.026(3) 1.
Sn2 Sn4+ 4 c 0.8745(14) 0.6082(14) 0.3805(15) 0.026(3) 1.
S1 S2- 4 c 0.641(5) 0.578(4) 0.364(4) 0.018(8) 1.
S2 S2- 4 c 0.968(5) 0.599(5) 0.235(3) 0.018(8) 1.
S3 S2- 4 c 0.512(5) 0.494(4) 0.982(4) 0.018(8) 1.
S4 S2- 4 c 0.667(5) 0.885(5) 0.191(4) 0.018(8) 1.
S5 S2- 4 c 0.800(6) 0.697(5) 0.760(4) 0.018(8) 1.
S6 S2- 4 c 0.902(5) 0.670(4) -0.006(3) 0.018(8) 1.
S7 S2- 4 c 0.872(5) 0.768(4) 0.445(4) 0.018(8) 1.
#End of TTdata_244749-ICSD
