
#(C) 2021 by FIZ Karlsruhe - Leibniz Institute for Information Infrastructure.  All rights reserved.
data_240084-ICSD
_database_code_ICSD 240084
_audit_creation_date 2003-10-01
_chemical_name_common 'Yttrium aluminium gallide (1/1.75/2.25)'
_chemical_formula_structural 'Y Al1.65 Ga2.10'
_chemical_formula_sum 'Al1.65 Ga2.1 Y1'
_exptl_crystal_density_diffrn 5.44
_citation_title

;
Isothermal section (400C) of the phase diagram of Y-Al-Ga ternary system in
the region up to 33.3 at.% Y
;
loop_
_citation_id
_citation_journal_full
_citation_year
_citation_journal_volume
_citation_page_first
_citation_page_last
_citation_journal_id_ASTM
primary 'Journal of Alloys and Compounds' 2003 348 138 145 JALCEU
loop_
_citation_author_citation_id
_citation_author_name
primary 'Speka, M.V.'
primary 'Markiv, V.Ya.'
primary 'Zakharenko, M.I.'
primary 'Belyavina, N.M.'
_cell_length_a 8.368(2)
_cell_length_b 12.557(5)
_cell_length_c 9.750(3)
_cell_angle_alpha 90
_cell_angle_beta 90
_cell_angle_gamma 90
_cell_volume 1024.5
_cell_formula_units_Z 12
_space_group_name_H-M_alt 'P 2 2 2'
_space_group_IT_number 16
loop_
_space_group_symop_id
_space_group_symop_operation_xyz
1 '-x, y, -z'
2 'x, -y, -z'
3 '-x, -y, z'
4 'x, y, z'
loop_
_atom_type_symbol
_atom_type_oxidation_number
Y0+ 0
Al0+ 0
Ga0+ 0
Y0+ 0
Al0+ 0
Ga0+ 0
Y0+ 0
Al0+ 0
Ga0+ 0
Al0+ 0
Ga0+ 0
Al0+ 0
Ga0+ 0
Al0+ 0
Ga0+ 0
Al0+ 0
Ga0+ 0
Al0+ 0
Ga0+ 0
Al0+ 0
Ga0+ 0
Al0+ 0
Ga0+ 0
Al0+ 0
Ga0+ 0
Al0+ 0
Ga0+ 0
Al0+ 0
Ga0+ 0
Al0+ 0
Ga0+ 0
Al0+ 0
Ga0+ 0
loop_
_atom_site_label
_atom_site_type_symbol
_atom_site_symmetry_multiplicity
_atom_site_Wyckoff_symbol
_atom_site_fract_x
_atom_site_fract_y
_atom_site_fract_z
_atom_site_B_iso_or_equiv
_atom_site_occupancy
Y1 Y0+ 1 a 0 0 0 4.5(1) 1.
Y2 Y0+ 1 b 0.5 0 0 4.5(1) 1.
Y3 Y0+ 1 d 0 0 0.5 4.5(1) 1.
Y4 Y0+ 4 u 0.268(2) 0.163(2) 0.5 4.5(1) 1.
Y5 Y0+ 2 l 0.286(5) 0.5 0.5 4.5(1) 1.
Y6 Y0+ 2 o 0.5 0.339(4) 0 4.5(1) 1.
Y7 Y0+ 2 m 0 0.338(4) 0 4.5(1) 1.
Ga1 Ga0+ 2 n 0 0.321(4) 0.5 4.5(1) 1.
Al1 Al0+ 2 r 0.5 0 0.413(3) 4.5(1) 1.
Ga2 Ga0+ 4 u 0.263(5) 0.518(3) 0.125(2) 4.5(1) 1.
Al2 Al0+ 4 u 0.245(4) 0.331(3) 0.228(4) 4.5(1) 1.
Ga3 Ga0+ 4 u 0.525(4) 0.329(4) 0.363(2) 4.5(1) 1.
Ga4 Ga0+ 4 u 0.257(3) 0.173(4) 0.592(2) 4.5(1) 1.
Al3 Al0+ 4 u 0.277(4) 0.196(3) 0.836(3) 4.5(1) 1.
Ga5 Ga0+ 4 u 0.987(4) 0.166(5) 0.716(3) 4.5(1) 1.
Al4 Al0+ 2 s 0 0.5 0.295(5) 4.5(1) 1.
Ga6 Ga0+ 4 u 0.484(4) 0.150(3) 0.246(3) 4.5(1) 1.
Ga7 Ga0+ 4 u 0.216(4) 0.012(3) 0.258(4) 4.5(1) 1.
Al5 Al0+ 4 u 0.949(6) 0.339(8) 0.244(4) 4.5(1) 1.
#End of TTdata_240084-ICSD
