
#(C) 2021 by FIZ Karlsruhe - Leibniz Institute for Information Infrastructure.  All rights reserved.
data_21535-ICSD
_database_code_ICSD 21535
_audit_creation_date 2019-08-01
_chemical_name_common 'Gadolinium tetradecaoxo-pentaphosphate'
_chemical_formula_structural 'Gd P5 O14'
_chemical_formula_sum 'Gd1 O14 P5'
_chemical_name_structure_type TbP5O14
_exptl_crystal_density_diffrn 3.56
_diffrn_ambient_temperature 120.
_citation_title

;
Host-guest prospects of neodymium and gadolinium ultraphosphate frameworks for
nuclear waste storage: Multi-temperature topological analysis of nanoporous
cages in RP5O14
;
loop_
_citation_id
_citation_journal_full
_citation_year
_citation_journal_volume
_citation_page_first
_citation_page_last
_citation_journal_id_ASTM
primary 'Journal of Solid State Chemistry' 2018 266 250 257 JSSCBI
loop_
_citation_author_citation_id
_citation_author_name
primary 'Cramer, Alisha J.'
primary 'Cole, Jacqueline M.'
_cell_length_a 8.718(4)
_cell_length_b 8.881(4)
_cell_length_c 12.902(6)
_cell_angle_alpha 90.
_cell_angle_beta 90.499(5)
_cell_angle_gamma 90.
_cell_volume 998.89
_cell_formula_units_Z 4
_space_group_name_H-M_alt 'P 1 21/c 1'
_space_group_IT_number 14
loop_
_space_group_symop_id
_space_group_symop_operation_xyz
1 'x, -y+1/2, z+1/2'
2 '-x, -y, -z'
3 '-x, y+1/2, -z+1/2'
4 'x, y, z'
loop_
_atom_type_symbol
_atom_type_oxidation_number
Gd3+ 3
P5+ 5
O2- -2
loop_
_atom_site_label
_atom_site_type_symbol
_atom_site_symmetry_multiplicity
_atom_site_Wyckoff_symbol
_atom_site_fract_x
_atom_site_fract_y
_atom_site_fract_z
_atom_site_U_iso_or_equiv
_atom_site_occupancy
Gd1 Gd3+ 4 e 0.72235(2) 0.19105(2) 0.501588(16) 0.00434(10) 1
P1 P5+ 4 e 0.75222(11) 0.54668(12) 0.66544(8) 0.00430(19) 1
P2 P5+ 4 e 0.77639(12) 0.55191(12) 0.33601(8) 0.00445(19) 1
P3 P5+ 4 e 0.68535(12) 0.75549(11) 0.50001(8) 0.00473(19) 1
P4 P5+ 4 e 0.48961(12) 0.49308(13) 0.79729(8) 0.00491(19) 1
P5 P5+ 4 e 1.00837(12) 0.50352(12) 0.17198(8) 0.00456(19) 1
O1 O2- 4 e 0.7966(4) 0.6866(3) 0.4125(3) 0.0076(6) 1
O2 O2- 4 e 0.7760(4) 0.6933(3) 0.6012(3) 0.0070(6) 1
O3 O2- 4 e 0.4691(4) 0.3145(3) 0.5071(3) 0.0079(6) 1
O4 O2- 4 e 0.7088(3) -0.0805(4) 0.4988(2) 0.0091(6) 1
O5 O2- 4 e 0.7795(4) 0.4065(4) 0.6094(2) 0.0089(6) 1
O6 O2- 4 e 0.9154(3) 0.5832(4) 0.2645(2) 0.0074(5) 1
O7 O2- 4 e 0.5863(3) 0.5688(4) 0.7064(2) 0.0075(5) 1
O8 O2- 4 e 0.6328(3) 0.6018(3) 0.2705(2) 0.0070(5) 1
O9 O2- 4 e 0.9163(3) 0.1156(4) 0.6223(2) 0.0079(6) 1
O10 O2- 4 e 0.7675(4) 0.4040(4) 0.3838(2) 0.0090(6) 1
O11 O2- 4 e 0.8601(3) 0.5792(3) 0.7599(2) 0.0066(5) 1
O12 O2- 4 e 0.5847(4) 0.1199(4) 0.3521(2) 0.0087(6) 1
O13 O2- 4 e 0.9222(3) 0.1247(4) 0.3886(2) 0.0077(5) 1
O14 O2- 4 e 0.5887(4) 0.1169(4) 0.6496(2) 0.0088(6) 1
loop_
_atom_site_aniso_label
_atom_site_aniso_type_symbol
_atom_site_aniso_U_11
_atom_site_aniso_U_22
_atom_site_aniso_U_33
_atom_site_aniso_U_12
_atom_site_aniso_U_13
_atom_site_aniso_U_23
Gd1 Gd3+ 0.00407(12) 0.00316(13) 0.00580(12) 0.00014(5) 0.00049(8) 0.00005(6)
P1 P5+ 0.0028(4) 0.0041(4) 0.0060(4) -0.0006(3) -0.0001(3) 0.0000(3)
P2 P5+ 0.0040(4) 0.0036(4) 0.0058(4) 0.0000(3) 0.0008(3) -0.0003(3)
P3 P5+ 0.0048(4) 0.0039(5) 0.0055(4) 0.0003(3) 0.0003(3) 0.0001(3)
P4 P5+ 0.0039(4) 0.0051(4) 0.0058(4) -0.0003(3) 0.0007(3) -0.0002(3)
P5 P5+ 0.0039(4) 0.0041(4) 0.0057(4) 0.0005(3) 0.0004(3) 0.0001(3)
O1 O2- 0.0058(13) 0.0093(15) 0.0077(14) -0.0015(10) 0.0020(11) -0.0025(10)
O2 O2- 0.0064(13) 0.0064(15) 0.0081(14) -0.0009(10) -0.0005(11) 0.0024(10)
O3 O2- 0.0062(13) 0.0078(14) 0.0097(14) -0.0008(10) -0.0003(11) -0.0010(10)
O4 O2- 0.0098(13) 0.0070(14) 0.0106(14) -0.0012(10) 0.0019(12) 0.0009(11)
O5 O2- 0.0101(13) 0.0055(14) 0.0110(14) 0.0019(11) -0.0026(11) -0.0030(11)
O6 O2- 0.0055(13) 0.0070(14) 0.0098(13) -0.0005(10) 0.0043(10) -0.0016(11)
O7 O2- 0.0036(12) 0.0089(14) 0.0099(13) 0.0013(10) 0.0020(10) 0.0025(11)
O8 O2- 0.0048(12) 0.0044(13) 0.0118(13) -0.0017(10) -0.0035(10) 0.0015(11)
O9 O2- 0.0070(13) 0.0039(13) 0.0129(14) 0.0021(10) -0.0017(11) 0.0008(11)
O10 O2- 0.0114(14) 0.0026(13) 0.0131(14) -0.0006(11) 0.0013(11) 0.0030(11)
O11 O2- 0.0055(12) 0.0048(13) 0.0094(13) 0.0025(10) -0.0019(10) -0.0008(10)
O12 O2- 0.0081(13) 0.0094(14) 0.0086(13) -0.0001(11) 0.0002(10) -0.0025(11)
O13 O2- 0.0065(13) 0.0082(14) 0.0084(13) -0.0007(11) 0.0023(10) -0.0017(11)
O14 O2- 0.0068(13) 0.0103(15) 0.0093(13) -0.0015(11) 0.0018(10) 0.0012(11)
#End of TTdata_21535-ICSD